/*--------------------------------*- C++ -*----------------------------------*\
| =========                 |                                                 |
| \\      /  F ield         | OpenFOAM: The Open Source CFD Toolbox           |
|  \\    /   O peration     | Version:  v1912                                 |
|   \\  /    A nd           | Website:  www.openfoam.com                      |
|    \\/     M anipulation  |                                                 |
\*---------------------------------------------------------------------------*/
FoamFile
{
    version     2.0;
    format      ascii;
    class       volVectorField;
    object      U;
}
// * * * * * * * * * * * * * * * * * * * * * * * * * * * * * * * * * * * * * //

dimensions      [0 1 -1 0 0 0 0];

internalField   uniform (50 0 0);

boundaryField
{
    #includeEtc "caseDicts/setConstraintTypes"

    droppingObject
    {
        type            movingWallVelocity;
        value           uniform (0 0 0);
    }
    naca
    {
	type		noSlip;
    }
    inlet
    {
        type            fixedValue;
        value    	$internalField;
    }
    outlet
    {
        type            pressureInletOutletVelocity;
        value           $internalField;
    }
    farField
    {
        type            freestreamVelocity;
        freestreamValue $internalField;
    }
}

// ************************************************************************* //
